 vasp.5.2.12 11Nov11 complex                                                    
  
 executed on             LinuxIFC date 2014.07.08  19:10:54
 running on    8 nodes
 distr:  one band on    8 nodes,    1 groups


--------------------------------------------------------------------------------------------------------


 INCAR:
 POTCAR:   PAW_PBE C 08Apr2002                    
 POTCAR:   PAW_PBE O 08Apr2002                    
 POTCAR:   PAW_PBE N 08Apr2002                    

 ----------------------------------------------------------------------------- 
|                                                                             |
|           W    W    AA    RRRRR   N    N  II  N    N   GGGG   !!!           |
|           W    W   A  A   R    R  NN   N  II  NN   N  G    G  !!!           |
|           W    W  A    A  R    R  N N  N  II  N N  N  G       !!!           |
|           W WW W  AAAAAA  RRRRR   N  N N  II  N  N N  G  GGG   !            |
|           WW  WW  A    A  R   R   N   NN  II  N   NN  G    G                |
|           W    W  A    A  R    R  N    N  II  N    N   GGGG   !!!           |
|                                                                             |
|      For optimal performance we recommend that you set                      |
|        NPAR = approx SQRT( number of cores)                                 |
|      This will greatly improve the performance of VASP for DFT.             |
|      The default NPAR=number of cores might be grossly inefficient          |
|      on modern multi-core architectures or massively parallel machines.     |
|      Unfortunately you need to use the default for hybrid, GW and RPA       |
|      calculations.                                                          |
|                                                                             |
 ----------------------------------------------------------------------------- 

 POTCAR:   PAW_PBE C 08Apr2002                    
   VRHFIN =C: s2p2                                                              
   LEXCH  = PE                                                                  
   EATOM  =   147.1560 eV,   10.8157 Ry                                         
                                                                                
   TITEL  = PAW_PBE C 08Apr2002                                                 
   LULTRA =        F    use ultrasoft PP ?                                      
   IUNSCR =        0    unscreen: 0-lin 1-nonlin 2-no                           
   RPACOR =     .000    partial core radius                                     
   POMASS =   12.011; ZVAL   =    4.000    mass and valenz                      
   RCORE  =    1.500    outmost cutoff radius                                   
   RWIGS  =    1.630; RWIGS  =     .863    wigner-seitz radius (au A)           
   ENMAX  =  400.000; ENMIN  =  300.000 eV                                      
   ICORE  =        2    local potential                                         
   LCOR   =        T    correct aug charges                                     
   LPAW   =        T    paw PP                                                  
   EAUG   =  644.873                                                            
   DEXC   =     .000                                                            
   RMAX   =    2.266    core radius for proj-oper                               
   RAUG   =    1.300    factor for augmentation sphere                          
   RDEP   =    1.501    radius for radial grids                                 
   RDEPT  =    1.300    core radius for aug-charge                              
   QCUT   =   -5.516; QGAM   =   11.032    optimization parameters              
                                                                                
   Description                                                                  
     l     E      TYP  RCUT    TYP  RCUT                                        
     0   .000     23  1.200                                                     
     0   .000     23  1.200                                                     
     1   .000     23  1.500                                                     
     1  2.500     23  1.500                                                     
     2   .000      7  1.500                                                     
  local pseudopotential read in
  atomic valenz-charges read in
  non local Contribution for L=           0  read in
    real space projection operators read in
  non local Contribution for L=           0  read in
    real space projection operators read in
  non local Contribution for L=           1  read in
    real space projection operators read in
  non local Contribution for L=           1  read in
    real space projection operators read in
    PAW grid and wavefunctions read in
 
   number of l-projection  operators is LMAX  =           4
   number of lm-projection operators is LMMAX =           8
 
 POTCAR:   PAW_PBE O 08Apr2002                    
   VRHFIN =O: s2p4                                                              
   LEXCH  = PE                                                                  
   EATOM  =   432.3788 eV,   31.7789 Ry                                         
                                                                                
   TITEL  = PAW_PBE O 08Apr2002                                                 
   LULTRA =        F    use ultrasoft PP ?                                      
   IUNSCR =        0    unscreen: 0-lin 1-nonlin 2-no                           
   RPACOR =     .000    partial core radius                                     
   POMASS =   16.000; ZVAL   =    6.000    mass and valenz                      
   RCORE  =    1.520    outmost cutoff radius                                   
   RWIGS  =    1.550; RWIGS  =     .820    wigner-seitz radius (au A)           
   ENMAX  =  400.000; ENMIN  =  300.000 eV                                      
   ICORE  =        2    local potential                                         
   LCOR   =        T    correct aug charges                                     
   LPAW   =        T    paw PP                                                  
   EAUG   =  605.392                                                            
   DEXC   =     .000                                                            
   RMAX   =    2.264    core radius for proj-oper                               
   RAUG   =    1.300    factor for augmentation sphere                          
   RDEP   =    1.550    radius for radial grids                                 
   QCUT   =   -5.520; QGAM   =   11.041    optimization parameters              
                                                                                
   Description                                                                  
     l     E      TYP  RCUT    TYP  RCUT                                        
     0   .000     23  1.200                                                     
     0  -.700     23  1.200                                                     
     1   .000     23  1.520                                                     
     1   .600     23  1.520                                                     
     2   .000      7  1.500                                                     
  local pseudopotential read in
  atomic valenz-charges read in
  non local Contribution for L=           0  read in
    real space projection operators read in
  non local Contribution for L=           0  read in
    real space projection operators read in
  non local Contribution for L=           1  read in
    real space projection operators read in
  non local Contribution for L=           1  read in
    real space projection operators read in
    PAW grid and wavefunctions read in
 
   number of l-projection  operators is LMAX  =           4
   number of lm-projection operators is LMMAX =           8
 
 POTCAR:   PAW_PBE N 08Apr2002                    
   VRHFIN =N: s2p3                                                              
   LEXCH  = PE                                                                  
   EATOM  =   264.5486 eV,   19.4438 Ry                                         
                                                                                
   TITEL  = PAW_PBE N 08Apr2002                                                 
   LULTRA =        F    use ultrasoft PP ?                                      
   IUNSCR =        0    unscreen: 0-lin 1-nonlin 2-no                           
   RPACOR =     .000    partial core radius                                     
   POMASS =   14.001; ZVAL   =    5.000    mass and valenz                      
   RCORE  =    1.500    outmost cutoff radius                                   
   RWIGS  =    1.400; RWIGS  =     .741    wigner-seitz radius (au A)           
   ENMAX  =  400.000; ENMIN  =  300.000 eV                                      
   ICORE  =        2    local potential                                         
   LCOR   =        T    correct aug charges                                     
   LPAW   =        T    paw PP                                                  
   EAUG   =  627.112                                                            
   DEXC   =     .000                                                            
   RMAX   =    2.247    core radius for proj-oper                               
   RAUG   =    1.300    factor for augmentation sphere                          
   RDEP   =    1.514    radius for radial grids                                 
   QCUT   =   -5.562; QGAM   =   11.124    optimization parameters              
                                                                                
   Description                                                                  
     l     E      TYP  RCUT    TYP  RCUT                                        
     0   .000     23  1.200                                                     
     0   .000     23  1.200                                                     
     1   .000     23  1.500                                                     
     1   .700     23  1.500                                                     
     2   .000      7  1.500                                                     
  local pseudopotential read in
  atomic valenz-charges read in
  non local Contribution for L=           0  read in
    real space projection operators read in
  non local Contribution for L=           0  read in
    real space projection operators read in
  non local Contribution for L=           1  read in
    real space projection operators read in
  non local Contribution for L=           1  read in
    real space projection operators read in
    PAW grid and wavefunctions read in
 
   number of l-projection  operators is LMAX  =           4
   number of lm-projection operators is LMMAX =           8
 
 PAW_PBE C 08Apr2002                    :
 energy of atom  1       EATOM= -147.1560
 kinetic energy error for atom=    0.0288 (will be added to EATOM!!)
 PAW_PBE O 08Apr2002                    :
 energy of atom  2       EATOM= -432.3788
 kinetic energy error for atom=    0.1156 (will be added to EATOM!!)
 PAW_PBE N 08Apr2002                    :
 energy of atom  3       EATOM= -264.5486
 kinetic energy error for atom=    0.0736 (will be added to EATOM!!)
 
 
 POSCAR: Generated by cif2cell 1.0.12. Rb2MnCl4 :
  positions in direct lattice
  velocities in cartesian coordinates
 exchange correlation table for  LEXCH =        8
   RHO(1)=    0.500       N(1)  =     2000
   RHO(2)=  100.500       N(2)  =     4000
 


--------------------------------------------------------------------------------------------------------


 ion  position               nearest neighbor table
   1  0.000  0.000  0.000-
   2  0.500  0.500  0.857-
   3  0.500  0.500  0.143-
   4  0.500  0.500  0.344-
   5  0.500  0.500  0.656-
   6  0.500  0.000  0.500-
   7  0.000  0.500  0.500-
 
  LATTYP: Found a simple tetragonal cell.
 ALAT       =     4.7639268220
 C/A-ratio  =     2.9389937424
  
  Lattice vectors:
  
 A1 = (   4.7639268220,   0.0000000000,   0.0000000000)
 A2 = (   0.0000000000,   4.7639268220,   0.0000000000)
 A3 = (   0.0000000000,   0.0000000000,  14.0011511193)
 Subroutine PRICEL returns:
 Original cell was already a primitive cell.
 

Analysis of symmetry for initial positions (statically):

 Routine SETGRP: Setting up the symmetry group for a 
 simple tetragonal supercell.


 Subroutine GETGRP returns: Found 16 space group operations
 (whereof 16 operations were pure point group operations)
 out of a pool of 16 trial point group operations.


The static configuration has the point symmetry D_4h.

Analysis of symmetry for dynamics (positions and initial velocities):

 Subroutine DYNSYM returns: Found 16 space group operations
 (whereof 16 operations were pure point group operations)
 out of a pool of 16 trial space group operations
 (whereof 16 operations were pure point group operations)
 and found also     1 'primitive' translations


The dynamic configuration has the point symmetry D_4h.

Analysis of magnetic symmetry:

 Subroutine MAGSYM returns: Found 16 space group operations
 (whereof 16 operations were pure point group operations)
 out of a pool of 16 trial space group operations
 (whereof 16 operations were pure point group operations)
 and found also     1 'primitive' translations


The magnetic configuration has the point symmetry D_4h.
 
 
 KPOINTS: Automatic mesh generated by run.sh      

Automatic generation of k-mesh.
 
 Subroutine IBZKPT returns following result:
 ===========================================
 
 Found      6 irreducible k-points:
 
 Following reciprocal coordinates:
            Coordinates               Weight
  0.000000  0.000000  0.000000      1.000000
  0.333333  0.000000  0.000000      4.000000
  0.333333  0.333333  0.000000      4.000000
  0.000000  0.000000  0.333333      2.000000
  0.333333  0.000000  0.333333      8.000000
  0.333333  0.333333  0.333333      8.000000
 
 Following cartesian coordinates:
            Coordinates               Weight
  0.000000  0.000000  0.000000      1.000000
  0.357571  0.000000  0.000000      4.000000
  0.357571  0.357571  0.000000      4.000000
  0.000000  0.000000  0.121664      2.000000
  0.357571  0.000000  0.121664      8.000000
  0.357571  0.357571  0.121664      8.000000
 
 TETIRR: Found     34 inequivalent tetrahedra from      162


--------------------------------------------------------------------------------------------------------




 Dimension of arrays:
   k-points           NKPTS =      6   k-points in BZ     NKDIM =      6   number of bands    NBANDS=     42
   number of dos      NEDOS =    301   number of ions     NIONS =      7
   non local maximal  LDIM  =      4   non local SUM 2l+1 LMDIM =      8
   total plane-waves  NPLWV =  40320
   max r-space proj   IRMAX =      1   max aug-charges    IRDMAX=   1846
   dimension x,y,z NGX =    24 NGY =   24 NGZ =   70
   dimension x,y,z NGXF=    48 NGYF=   48 NGZF=  140
   support grid    NGXF=    48 NGYF=   48 NGZF=  140
   ions per type =               1   2   4
 NGX,Y,Z   is equivalent  to a cutoff of   8.38,  8.38,  8.31 a.u.
 NGXF,Y,Z  is equivalent  to a cutoff of  16.75, 16.75, 16.62 a.u.


 I would recommend the setting:
   dimension x,y,z NGX =    23 NGY =   23 NGZ =   68
 SYSTEM =  unknown system                          
 POSCAR =  Generated by cif2cell 1.0.12. Rb2MnCl4 :

 Startparameter for this run:
   NWRITE =      2    write-flag & timer
   PREC   = normal    normal or accurate (medium, high low for compatibility)
   ISTART =      0    job   : 0-new  1-cont  2-samecut
   ICHARG =      2    charge: 1-file 2-atom 10-const
   ISPIN  =      2    spin polarized calculation?
   LNONCOLLINEAR =      F non collinear calculations
   LSORBIT =      F    spin-orbit coupling
   INIWAV =      1    electr: 0-lowe 1-rand  2-diag
   LASPH  =      T    aspherical Exc in radial PAW
   METAGGA=      F    non-selfconsistent MetaGGA calc.

 Electronic Relaxation 1
   ENCUT  =  400.0 eV  29.40 Ry    5.42 a.u.   7.77  7.77 22.83*2*pi/ulx,y,z
   ENINI  =  400.0     initial cutoff
   ENAUG  =  644.9 eV  augmentation charge cutoff
   NELM   =     60;   NELMIN=  5; NELMDL= -5     # of ELM steps 
   EDIFF  = 0.1E-01   stopping-criterion for ELM
   LREAL  =      F    real-space projection
   NLSPLINE    = F    spline interpolate recip. space projectors
   LCOMPAT=      F    compatible to vasp.4.4
   GGA_COMPAT  = T    GGA compatible to vasp.4.4-vasp.4.6
   LMAXPAW     = -100 max onsite density
   LMAXMIX     =    6 max onsite mixed and CHGCAR
   VOSKOWN=      0    Vosko Wilk Nusair interpolation
   ROPT   =    0.00000   0.00000   0.00000
 Ionic relaxation
   EDIFFG = -.3E+00   stopping-criterion for IOM
   NSW    =     10    number of steps for IOM
   NBLOCK =      1;   KBLOCK =     10    inner block; outer block 
   IBRION =      2    ionic relax: 0-MD 1-quasi-New 2-CG
   NFREE  =      1    steps in history (QN), initial steepest desc. (CG)
   ISIF   =      3    stress and relaxation
   IWAVPR =     11    prediction:  0-non 1-charg 2-wave 3-comb
   ISYM   =      2    0-nonsym 1-usesym 2-fastsym
   LCORR  =      T    Harris-Foulkes like correction to forces

   POTIM  = 0.5000    time-step for ionic-motion
   TEIN   =    0.0    initial temperature
   TEBEG  =    0.0;   TEEND  =   0.0 temperature during run
   SMASS  =  -3.00    Nose mass-parameter (am)
   estimated Nose-frequenzy (Omega)   =  0.10E-29 period in steps =****** mass=  -0.519E-27a.u.
   SCALEE = 1.0000    scale energy and forces
   NPACO  =    256;   APACO  = 16.0  distance and # of slots for P.C.
   PSTRESS=    0.0 pullay stress

  Mass of Ions in am
   POMASS =  12.01 16.00 14.00
  Ionic Valenz
   ZVAL   =   4.00  6.00  5.00
  Atomic Wigner-Seitz radii
   RWIGS  =  -1.00 -1.00 -1.00
  virtual crystal weights 
   VCA    =   1.00  1.00  1.00
   NELECT =      36.0000    total number of electrons
   NUPDOWN=      -1.0000    fix difference up-down

 DOS related values:
   EMIN   =  10.00;   EMAX   =-10.00  energy-range for DOS
   EFERMI =   0.00
   ISMEAR =    -5;   SIGMA  =   0.20  broadening in eV -4-tet -1-fermi 0-gaus

 Electronic relaxation 2 (details)
   IALGO  =     38    algorithm
   LDIAG  =      T    sub-space diagonalisation (order eigenvalues)
   LSUBROT=      T    optimize rotation matrix (better conditioning)
   TURBO    =      0    0=normal 1=particle mesh
   IRESTART =      0    0=no restart 2=restart with 2 vectors
   NREBOOT  =      0    no. of reboots
   NMIN     =      0    reboot dimension
   EREF     =   0.00    reference energy to select bands
   IMIX   =      4    mixing-type and parameters
     AMIX     =   0.40;   BMIX     =  1.00
     AMIX_MAG =   1.60;   BMIX_MAG =  1.00
     AMIN     =   0.10
     WC   =   100.;   INIMIX=   1;  MIXPRE=   1

 Intra band minimization:
   WEIMIN = 0.0010     energy-eigenvalue tresh-hold
   EBREAK =  0.60E-04  absolut break condition
   DEPER  =   0.30     relativ break condition  

   TIME   =   0.40     timestep for ELM

  volume/ion in A,a.u.               =      45.39       306.33
  Fermi-wavevector in a.u.,A,eV,Ry     =   0.792157  1.496959  8.537820  0.627512
  Thomas-Fermi vector in A             =   1.897839
 
 Write flags
   LWAVE  =      F    write WAVECAR
   LCHARG =      T    write CHGCAR
   LVTOT  =      F    write LOCPOT, total local potential
   LVHAR  =      F    write LOCPOT, Hartree potential only
   LELF   =      F    write electronic localiz. function (ELF)
   LORBIT =     11    0 simple, 1 ext, 2 COOP (PROOUT)


 Dipole corrections
   LMONO  =      F    monopole corrections only (constant potential shift)
   LDIPOL =      F    correct potential (dipole corrections)
   IDIPOL =      0    1-x, 2-y, 3-z, 4-all directions 
   EPSILON=  1.0000000 bulk dielectric constant

 Exchange correlation treatment:
   GGA     =    --    GGA type
   LEXCH   =     8    internal setting for exchange type
   VOSKOWN=      0    Vosko Wilk Nusair interpolation
   LHFCALC =     F    Hartree Fock is set to
   LHFONE  =     F    Hartree Fock one center treatment
   AEXX    =    0.0000 exact exchange contribution

 Linear response parameters
   LEPSILON=     F    determine dielectric tensor
   LRPA    =     F    only Hartree local field effects (RPA)
   LNABLA  =     F    use nabla operator in PAW spheres
   LVEL    =     F    velocity operator in full k-point grid
   LINTERFAST=   F  fast interpolation
   KINTER  =     0    interpolate to denser k-point grid
   CSHIFT  =0.1000    complex shift for real part using Kramers Kronig
   OMEGAMAX=  -1.0    maximum frequency
   RTIME   =    0.100 relaxation time in fs

 Orbital magnetization related:
   ORBITALMAG=     F  switch on orbital magnetization
   LCHIMAG   =     F  perturbation theory with respect to B field
   DQ        =  0.001000  dq finite difference perturbation B field



--------------------------------------------------------------------------------------------------------


 conjugate gradient relaxation of ions
 charge density and potential will be updated during run
 spin polarized calculation
 Variant of blocked Davidson
 Davidson routine will perform the subspace rotation
 perform sub-space diagonalisation
    after iterative eigenvector-optimisation
 modified Broyden-mixing scheme, WC =      100.0
 initial mixing is a Kerker type mixing with AMIX =  0.4000 and BMIX =      1.0000
 Hartree-type preconditioning will be used
 using additional bands           24
 reciprocal scheme for non local part
 calculate Harris-corrections to forces 
   (improved forces if not selfconsistent)
 use gradient corrections 
 use of overlap-Matrix (Vanderbilt PP)
 Fermi weights with tetrahedron method with Bloechl corrections


--------------------------------------------------------------------------------------------------------


  energy-cutoff  :      400.00
  volume of cell :      317.76
      direct lattice vectors                 reciprocal lattice vectors
     4.763926822  0.000000000  0.000000000     0.209910865  0.000000000  0.000000000
     0.000000000  4.763926822  0.000000000     0.000000000  0.209910865  0.000000000
     0.000000000  0.000000000 14.001151119     0.000000000  0.000000000  0.071422699

  length of vectors
     4.763926822  4.763926822 14.001151119     0.209910865  0.209910865  0.071422699


 
 k-points in units of 2pi/SCALE and weight: Automatic mesh generated by run.sh      
   0.00000000  0.00000000  0.00000000       0.037
   0.35757070  0.00000000  0.00000000       0.148
   0.35757070  0.35757070  0.00000000       0.148
   0.00000000  0.00000000  0.12166433       0.074
   0.35757070  0.00000000  0.12166433       0.296
   0.35757070  0.35757070  0.12166433       0.296
 
 k-points in reciprocal lattice and weights: Automatic mesh generated by run.sh      
   0.00000000  0.00000000  0.00000000       0.037
   0.33333333  0.00000000  0.00000000       0.148
   0.33333333  0.33333333  0.00000000       0.148
   0.00000000  0.00000000  0.33333333       0.074
   0.33333333  0.00000000  0.33333333       0.296
   0.33333333  0.33333333  0.33333333       0.296
 
 position of ions in fractional coordinates (direct lattice) 
   0.00000000  0.00000000  0.00000000
   0.50000000  0.50000000  0.85656212
   0.50000000  0.50000000  0.14343788
   0.50000000  0.50000000  0.34401963
   0.50000000  0.50000000  0.65598037
   0.50000000  0.00000000  0.50000000
   0.00000000  0.50000000  0.50000000
 
 position of ions in cartesian coordinates  (Angst):
   0.00000000  0.00000000  0.00000000
   2.38196341  2.38196341 11.99285565
   2.38196341  2.38196341  2.00829547
   2.38196341  2.38196341  4.81667078
   2.38196341  2.38196341  9.18448034
   2.38196341  0.00000000  7.00057556
   0.00000000  2.38196341  7.00057556
 


--------------------------------------------------------------------------------------------------------


 k-point  1 :  0.00000.00000.0000  plane waves:    5765
 k-point  2 :  0.33330.00000.0000  plane waves:    5760
 k-point  3 :  0.33330.33330.0000  plane waves:    5781
 k-point  4 :  0.00000.00000.3333  plane waves:    5754
 k-point  5 :  0.33330.00000.3333  plane waves:    5788
 k-point  6 :  0.33330.33330.3333  plane waves:    5754

 maximum and minimum number of plane-waves per node :       742      709

 maximum number of plane-waves:      5788
 maximum index in each direction: 
   IXMAX=    7   IYMAX=    7   IZMAX=   22
   IXMIN=   -8   IYMIN=   -8   IZMIN=  -23

 WARNING: aliasing errors must be expected set NGX to  32 to avoid them
 WARNING: aliasing errors must be expected set NGY to  32 to avoid them
 WARNING: aliasing errors must be expected set NGZ to  92 to avoid them
 aliasing errors are usually negligible using standard VASP settings
 and one can safely disregard these warnings

 parallel 3D FFT for wavefunctions:
    minimum data exchange during FFTs selected (reduces bandwidth)
 parallel 3D FFT for charge:
    minimum data exchange during FFTs selected (reduces bandwidth)


 total amount of memory used by VASP on root node    42326. kBytes
========================================================================

   base      :      30000. kBytes
   nonl-proj :        913. kBytes
   fftplans  :       1518. kBytes
   grid      :       3995. kBytes
   one-center:          6. kBytes
   wavefun   :       5894. kBytes
 
 Broyden mixing: mesh for mixing (old mesh)
   NGX = 15   NGY = 15   NGZ = 45
  (NGX  = 48   NGY  = 48   NGZ  =140)
  gives a total of  10125 points

 initial charge density was supplied:
 charge density of overlapping atoms calculated
 number of electron      36.0000000 magnetization      35.0000000
 keeping initial charge density in first step


--------------------------------------------------------------------------------------------------------


 Maximum index for augmentation-charges          169 (set IRDMAX)


--------------------------------------------------------------------------------------------------------


 First call to EWALD:  gamma=   0.260
 Maximum number of real-space cells 4x 4x 2
 Maximum number of reciprocal cells 2x 2x 5

    FEWALD:  cpu time    0.00: real time    0.00


----------------------------------------- Iteration    1(   1)  ---------------------------------------


    POTLOK:  cpu time    0.18: real time    0.18
    SETDIJ:  cpu time    0.44: real time    0.44
     EDDAV:  cpu time    2.83: real time    2.83
 BZINTS: Fermi energy:  4.339889; 36.000000 electrons
         Band energy:***********;  BLOECHL correction: -0.521451
       DOS:  cpu time    0.01: real time    0.01
    --------------------------------------------
      LOOP:  cpu time    3.46: real time    3.49

 eigenvalue-minimisations  :  1152
 total energy-change (2. order) :-0.9226484E+03  (-0.1455190E+04)
 number of electron      36.0000000 magnetization      35.0000000
 augmentation part       36.0000000 magnetization      35.0000000

 Free energy of the ion-electron system (eV)
  ---------------------------------------------------
  alpha Z        PSCENC =        17.30938353
  Ewald energy   TEWEN  =      -969.27828165
  -1/2 Hartree   DENC   =      -870.58823814
  -exchange  EXHF       =         0.00000000
  -V(xc)+E(xc)   XCENC  =       176.71161471
  PAW double counting   =       946.26615424     -954.37054773
  entropy T*S    EENTRO =         0.00000000
  eigenvalues    EBANDS =     -1338.25212219
  atomic energy  EATOM  =      2069.55362560
  ---------------------------------------------------
  free energy    TOTEN  =      -922.64841163 eV

  energy without entropy =     -922.64841163  energy(sigma->0) =     -922.64841163


--------------------------------------------------------------------------------------------------------




----------------------------------------- Iteration    1(   2)  ---------------------------------------


     EDDAV:  cpu time    3.23: real time    3.23
 BZINTS: Fermi energy: -4.850201; 36.000000 electrons
         Band energy:***********;  BLOECHL correction: -0.069430
       DOS:  cpu time    0.01: real time    0.01
    --------------------------------------------
      LOOP:  cpu time    3.24: real time    3.36

 eigenvalue-minimisations  :  1382
 total energy-change (2. order) :-0.1312552E+04  (-0.1293705E+04)
 number of electron      36.0000000 magnetization      35.0000000
 augmentation part       36.0000000 magnetization      35.0000000

 Free energy of the ion-electron system (eV)
  ---------------------------------------------------
  alpha Z        PSCENC =        17.30938353
  Ewald energy   TEWEN  =      -969.27828165
  -1/2 Hartree   DENC   =      -870.58823814
  -exchange  EXHF       =         0.00000000
  -V(xc)+E(xc)   XCENC  =       176.71161471
  PAW double counting   =       946.26615424     -954.37054773
  entropy T*S    EENTRO =         0.00000000
  eigenvalues    EBANDS =     -2650.80367561
  atomic energy  EATOM  =      2069.55362560
  ---------------------------------------------------
  free energy    TOTEN  =     -2235.19996505 eV

  energy without entropy =    -2235.19996505  energy(sigma->0) =    -2235.19996505


--------------------------------------------------------------------------------------------------------




----------------------------------------- Iteration    1(   3)  ---------------------------------------


     EDDAV:  cpu time    3.13: real time    3.13
 BZINTS: Fermi energy: -7.415067; 36.000000 electrons
         Band energy:***********;  BLOECHL correction: -0.019662
       DOS:  cpu time    0.01: real time    0.01
    --------------------------------------------
      LOOP:  cpu time    3.14: real time    3.20

 eigenvalue-minimisations  :  1328
 total energy-change (2. order) :-0.4825438E+02  (-0.4700543E+02)
 number of electron      36.0000000 magnetization      35.0000000
 augmentation part       36.0000000 magnetization      35.0000000

 Free energy of the ion-electron system (eV)
  ---------------------------------------------------
  alpha Z        PSCENC =        17.30938353
  Ewald energy   TEWEN  =      -969.27828165
  -1/2 Hartree   DENC   =      -870.58823814
  -exchange  EXHF       =         0.00000000
  -V(xc)+E(xc)   XCENC  =       176.71161471
  PAW double counting   =       946.26615424     -954.37054773
  entropy T*S    EENTRO =         0.00000000
  eigenvalues    EBANDS =     -2699.05805203
  atomic energy  EATOM  =      2069.55362560
  ---------------------------------------------------
  free energy    TOTEN  =     -2283.45434147 eV

  energy without entropy =    -2283.45434147  energy(sigma->0) =    -2283.45434147


--------------------------------------------------------------------------------------------------------




----------------------------------------- Iteration    1(   4)  ---------------------------------------


     EDDAV:  cpu time    3.11: real time    3.11
 BZINTS: Fermi energy: -7.447779; 36.000000 electrons
         Band energy:***********;  BLOECHL correction: -0.024216
       DOS:  cpu time    0.01: real time    0.01
    --------------------------------------------
      LOOP:  cpu time    3.12: real time    3.19

 eigenvalue-minimisations  :  1318
 total energy-change (2. order) :-0.5273086E+00  (-0.5172764E+00)
 number of electron      36.0000000 magnetization      35.0000000
 augmentation part       36.0000000 magnetization      35.0000000

 Free energy of the ion-electron system (eV)
  ---------------------------------------------------
  alpha Z        PSCENC =        17.30938353
  Ewald energy   TEWEN  =      -969.27828165
  -1/2 Hartree   DENC   =      -870.58823814
  -exchange  EXHF       =         0.00000000
  -V(xc)+E(xc)   XCENC  =       176.71161471
  PAW double counting   =       946.26615424     -954.37054773
  entropy T*S    EENTRO =         0.00000000
  eigenvalues    EBANDS =     -2699.58536068
  atomic energy  EATOM  =      2069.55362560
  ---------------------------------------------------
  free energy    TOTEN  =     -2283.98165012 eV

  energy without entropy =    -2283.98165012  energy(sigma->0) =    -2283.98165012


--------------------------------------------------------------------------------------------------------




----------------------------------------- Iteration    1(   5)  ---------------------------------------


     EDDAV:  cpu time    3.06: real time    3.06
 BZINTS: Fermi energy: -7.448053; 36.000000 electrons
         Band energy:***********;  BLOECHL correction: -0.024163
       DOS:  cpu time    0.01: real time    0.01
    CHARGE:  cpu time    0.10: real time    0.10
    MIXING:  cpu time    0.00: real time    0.00
    --------------------------------------------
      LOOP:  cpu time    3.18: real time    3.42

 eigenvalue-minimisations  :  1294
 total energy-change (2. order) :-0.8271972E-02  (-0.8358871E-02)
 number of electron      36.0000078 magnetization      29.0408508
 augmentation part        0.4557131 magnetization      19.5921207

 Broyden mixing:
  rms(total) = 0.10228E+02    rms(broyden)= 0.95712E+01
  rms(prec ) = 0.10300E+02
  weight for this iteration     100.00

 Free energy of the ion-electron system (eV)
  ---------------------------------------------------
  alpha Z        PSCENC =        17.30938353
  Ewald energy   TEWEN  =      -969.27828165
  -1/2 Hartree   DENC   =      -870.58823814
  -exchange  EXHF       =         0.00000000
  -V(xc)+E(xc)   XCENC  =       176.71161471
  PAW double counting   =       946.26615424     -954.37054773
  entropy T*S    EENTRO =         0.00000000
  eigenvalues    EBANDS =     -2699.59363265
  atomic energy  EATOM  =      2069.55362560
  ---------------------------------------------------
  free energy    TOTEN  =     -2283.98992209 eV

  energy without entropy =    -2283.98992209  energy(sigma->0) =    -2283.98992209


--------------------------------------------------------------------------------------------------------




----------------------------------------- Iteration    1(   6)  ---------------------------------------


    POTLOK:  cpu time    0.18: real time    0.18
    SETDIJ:  cpu time    0.44: real time    0.44
     EDDAV:  cpu time    3.03: real time    3.03
 BZINTS: Fermi energy: -0.370107; 36.000000 electrons
         Band energy:-362.448026;  BLOECHL correction: -0.127465
       DOS:  cpu time    0.01: real time    0.01
    CHARGE:  cpu time    0.10: real time    0.10
    MIXING:  cpu time    0.01: real time    0.01
    --------------------------------------------
      LOOP:  cpu time    3.76: real time    3.83

 eigenvalue-minimisations  :  1266
 total energy-change (2. order) : 0.2392708E+04  (-0.1133289E+04)
 number of electron      36.0000325 magnetization      26.6850656
 augmentation part        2.3048042 magnetization      17.2097811

 Broyden mixing:
  rms(total) = 0.10744E+02    rms(broyden)= 0.10347E+02
  rms(prec ) = 0.11853E+02
  weight for this iteration     100.00

 eigenvalues of (default mixing * dielectric matrix)
  average eigenvalue GAMMA=   0.4619
  0.4619

 Free energy of the ion-electron system (eV)
  ---------------------------------------------------
  alpha Z        PSCENC =        17.30938353
  Ewald energy   TEWEN  =      -969.27828165
  -1/2 Hartree   DENC   =      -972.78866086
  -exchange  EXHF       =         0.00000000
  -V(xc)+E(xc)   XCENC  =       343.88693171
  PAW double counting   =      2301.71785936    -2319.23444972
  entropy T*S    EENTRO =         0.00000000
  eigenvalues    EBANDS =      -362.44802557
  atomic energy  EATOM  =      2069.55362560
  ---------------------------------------------------
  free energy    TOTEN  =       108.71838240 eV

  energy without entropy =      108.71838240  energy(sigma->0) =      108.71838240


--------------------------------------------------------------------------------------------------------




----------------------------------------- Iteration    1(   7)  ---------------------------------------


    POTLOK:  cpu time    0.18: real time    0.18
    SETDIJ:  cpu time    0.45: real time    0.45
     EDDAV:  cpu time    2.68: real time    2.68
 BZINTS: Fermi energy: -2.562655; 36.000000 electrons
         Band energy:-318.535191;  BLOECHL correction: -0.002503
       DOS:  cpu time    0.01: real time    0.01
    CHARGE:  cpu time    0.10: real time    0.10
    MIXING:  cpu time    0.01: real time    0.01
    --------------------------------------------
      LOOP:  cpu time    3.42: real time    3.49

 eigenvalue-minimisations  :  1088
 total energy-change (2. order) :-0.1819603E+02  (-0.3160003E+02)
 number of electron      36.0000243 magnetization      24.4524562
 augmentation part        1.6447259 magnetization      17.2408945

 Broyden mixing:
  rms(total) = 0.47008E+01    rms(broyden)= 0.46639E+01
  rms(prec ) = 0.60962E+01
  weight for this iteration     100.00

 eigenvalues of (default mixing * dielectric matrix)
  average eigenvalue GAMMA=   0.6587
  0.6587  0.6587

 Free energy of the ion-electron system (eV)
  ---------------------------------------------------
  alpha Z        PSCENC =        17.30938353
  Ewald energy   TEWEN  =      -969.27828165
  -1/2 Hartree   DENC   =      -940.09457887
  -exchange  EXHF       =         0.00000000
  -V(xc)+E(xc)   XCENC  =       239.20311078
  PAW double counting   =      5055.55841913    -5063.19413915
  entropy T*S    EENTRO =         0.00000000
  eigenvalues    EBANDS =      -318.53519067
  atomic energy  EATOM  =      2069.55362560
  ---------------------------------------------------
  free energy    TOTEN  =        90.52234870 eV

  energy without entropy =       90.52234870  energy(sigma->0) =       90.52234870


--------------------------------------------------------------------------------------------------------




----------------------------------------- Iteration    1(   8)  ---------------------------------------


    POTLOK:  cpu time    0.18: real time    0.18
    SETDIJ:  cpu time    0.44: real time    0.44
     EDDAV:  cpu time    2.89: real time    2.89
 BZINTS: Fermi energy: -3.114132; 36.000000 electrons
         Band energy:-314.337342;  BLOECHL correction:  0.000000
       DOS:  cpu time    0.00: real time    0.00
    CHARGE:  cpu time    0.10: real time    0.10
    MIXING:  cpu time    0.01: real time    0.01
    --------------------------------------------
      LOOP:  cpu time    3.62: real time    3.69

 eigenvalue-minimisations  :  1202
 total energy-change (2. order) : 0.5763847E+01  (-0.8822161E+01)
 number of electron      36.0000178 magnetization      23.1103080
 augmentation part        1.1514211 magnetization      10.9925559

 Broyden mixing:
  rms(total) = 0.38872E+01    rms(broyden)= 0.38741E+01
  rms(prec ) = 0.46921E+01
  weight for this iteration     100.00

 eigenvalues of (default mixing * dielectric matrix)
  average eigenvalue GAMMA=   0.4965
  0.6049  0.6049  0.2797

 Free energy of the ion-electron system (eV)
  ---------------------------------------------------
  alpha Z        PSCENC =        17.30938353
  Ewald energy   TEWEN  =      -969.27828165
  -1/2 Hartree   DENC   =      -934.16605454
  -exchange  EXHF       =         0.00000000
  -V(xc)+E(xc)   XCENC  =       235.51240369
  PAW double counting   =      3866.63140776    -3874.93894662
  entropy T*S    EENTRO =         0.00000000
  eigenvalues    EBANDS =      -314.33734219
  atomic energy  EATOM  =      2069.55362560
  ---------------------------------------------------
  free energy    TOTEN  =        96.28619557 eV

  energy without entropy =       96.28619557  energy(sigma->0) =       96.28619557


--------------------------------------------------------------------------------------------------------




----------------------------------------- Iteration    1(   9)  ---------------------------------------


    POTLOK:  cpu time    0.17: real time    0.18
    SETDIJ:  cpu time    0.45: real time    0.45
     EDDAV:  cpu time    2.75: real time    2.76
 BZINTS: Fermi energy: -2.701732; 36.000000 electrons
         Band energy:-325.975263;  BLOECHL correction: -0.000505
       DOS:  cpu time    0.01: real time    0.01
    CHARGE:  cpu time    0.10: real time    0.10
    MIXING:  cpu time    0.01: real time    0.01
    --------------------------------------------
      LOOP:  cpu time    3.49: real time    3.59

 eigenvalue-minimisations  :  1124
 total energy-change (2. order) :-0.2772273E+02  (-0.4530646E+01)
 number of electron      36.0000150 magnetization      23.5122426
 augmentation part        1.0656472 magnetization       6.0016532

 Broyden mixing:
  rms(total) = 0.29813E+01    rms(broyden)= 0.29760E+01
  rms(prec ) = 0.30891E+01
  weight for this iteration     100.00

 eigenvalues of (default mixing * dielectric matrix)
  average eigenvalue GAMMA=   0.4660
  0.6221  0.6221  0.3098  0.3098

 Free energy of the ion-electron system (eV)
  ---------------------------------------------------
  alpha Z        PSCENC =        17.30938353
  Ewald energy   TEWEN  =      -969.27828165
  -1/2 Hartree   DENC   =      -923.91409113
  -exchange  EXHF       =         0.00000000
  -V(xc)+E(xc)   XCENC  =       209.20127240
  PAW double counting   =      3430.74636548    -3439.07954072
  entropy T*S    EENTRO =         0.00000000
  eigenvalues    EBANDS =      -325.97526338
  atomic energy  EATOM  =      2069.55362560
  ---------------------------------------------------
  free energy    TOTEN  =        68.56347012 eV

  energy without entropy =       68.56347012  energy(sigma->0) =       68.56347012


--------------------------------------------------------------------------------------------------------




----------------------------------------- Iteration    1(  10)  ---------------------------------------


    POTLOK:  cpu time    0.18: real time    0.18
    SETDIJ:  cpu time    0.45: real time    0.45
     EDDAV:  cpu time    2.81: real time    2.81
 BZINTS: Fermi energy: -3.850199; 36.000000 electrons
         Band energy:-343.759716;  BLOECHL correction: -0.011133
       DOS:  cpu time    0.01: real time    0.01
    CHARGE:  cpu time    0.10: real time    0.10
    MIXING:  cpu time    0.01: real time    0.01
    --------------------------------------------
      LOOP:  cpu time    3.55: real time    3.63

 eigenvalue-minimisations  :  1164
 total energy-change (2. order) :-0.2131058E+02  (-0.3997716E+00)
 number of electron      36.0000255 magnetization      23.0947408
 augmentation part        1.6192853 magnetization      10.7521179

 Broyden mixing:
  rms(total) = 0.26592E+01    rms(broyden)= 0.26511E+01
  rms(prec ) = 0.29130E+01
  weight for this iteration     100.00

 eigenvalues of (default mixing * dielectric matrix)
  average eigenvalue GAMMA=   0.3863
  0.6318  0.6318  0.3029  0.3029  0.0620

 Free energy of the ion-electron system (eV)
  ---------------------------------------------------
  alpha Z        PSCENC =        17.30938353
  Ewald energy   TEWEN  =      -969.27828165
  -1/2 Hartree   DENC   =      -910.84362434
  -exchange  EXHF       =         0.00000000
  -V(xc)+E(xc)   XCENC  =       192.52595115
  PAW double counting   =      3193.78904423    -3202.04349000
  entropy T*S    EENTRO =         0.00000000
  eigenvalues    EBANDS =      -343.75971555
  atomic energy  EATOM  =      2069.55362560
  ---------------------------------------------------
  free energy    TOTEN  =        47.25289297 eV

  energy without entropy =       47.25289297  energy(sigma->0) =       47.25289297


--------------------------------------------------------------------------------------------------------




----------------------------------------- Iteration    1(  11)  ---------------------------------------


    POTLOK:  cpu time    0.17: real time    0.17
    SETDIJ:  cpu time    0.45: real time    0.45
     EDDAV:  cpu time    2.65: real time    2.65
 BZINTS: Fermi energy: -3.606995; 36.000000 electrons
         Band energy:-343.487482;  BLOECHL correction: -0.000429
       DOS:  cpu time    0.01: real time    0.01
    CHARGE:  cpu time    0.10: real time    0.10
    MIXING:  cpu time    0.01: real time    0.01
    --------------------------------------------
      LOOP:  cpu time    3.38: real time    3.47

 eigenvalue-minimisations  :  1072
 total energy-change (2. order) :-0.5337828E+01  (-0.1277838E+00)
 number of electron      36.0000164 magnetization      22.6772008
 augmentation part        1.1760348 magnetization       5.2327775

 Broyden mixing:
  rms(total) = 0.21095E+01    rms(broyden)= 0.21035E+01
  rms(prec ) = 0.22246E+01
  weight for this iteration     100.00

 eigenvalues of (default mixing * dielectric matrix)
  average eigenvalue GAMMA=   0.5748
  1.0348  1.0348  0.4440  0.4440  0.3709  0.1203

 Free energy of the ion-electron system (eV)
  ---------------------------------------------------
  alpha Z        PSCENC =        17.30938353
  Ewald energy   TEWEN  =      -969.27828165
  -1/2 Hartree   DENC   =      -912.25617664
  -exchange  EXHF       =         0.00000000
  -V(xc)+E(xc)   XCENC  =       188.45832778
  PAW double counting   =      2976.33780701    -2984.72213827
  entropy T*S    EENTRO =         0.00000000
  eigenvalues    EBANDS =      -343.48748249
  atomic energy  EATOM  =      2069.55362560
  ---------------------------------------------------
  free energy    TOTEN  =        41.91506487 eV

  energy without entropy =       41.91506487  energy(sigma->0) =       41.91506487


--------------------------------------------------------------------------------------------------------




----------------------------------------- Iteration    1(  12)  ---------------------------------------


    POTLOK:  cpu time    0.18: real time    0.18
    SETDIJ:  cpu time    0.45: real time    0.45
     EDDAV:  cpu time    2.67: real time    2.68
 BZINTS: Fermi energy: -5.000776; 36.000000 electrons
         Band energy:-374.949077;  BLOECHL correction:  0.000000
       DOS:  cpu time    0.00: real time    0.00
    CHARGE:  cpu time    0.10: real time    0.10
    MIXING:  cpu time    0.01: real time    0.01
    --------------------------------------------
      LOOP:  cpu time    3.40: real time    3.60

 eigenvalue-minimisations  :  1086
 total energy-change (2. order) :-0.4224714E+02  (-0.9846787E+00)
 number of electron      36.0000282 magnetization      22.4411772
 augmentation part        1.8047656 magnetization      10.3004978

 Broyden mixing:
  rms(total) = 0.23500E+01    rms(broyden)= 0.23451E+01
  rms(prec ) = 0.26785E+01
  weight for this iteration     100.00

 eigenvalues of (default mixing * dielectric matrix)
  average eigenvalue GAMMA=   0.5320
  1.0853  1.0853  0.4567  0.4567  0.3298  0.2083  0.1019

 Free energy of the ion-electron system (eV)
  ---------------------------------------------------
  alpha Z        PSCENC =        17.30938353
  Ewald energy   TEWEN  =      -969.27828165
  -1/2 Hartree   DENC   =      -892.03137360
  -exchange  EXHF       =         0.00000000
  -V(xc)+E(xc)   XCENC  =       157.47605436
  PAW double counting   =      1984.29730143    -1992.70971232
  entropy T*S    EENTRO =         0.00000000
  eigenvalues    EBANDS =      -374.94907697
  atomic energy  EATOM  =      2069.55362560
  ---------------------------------------------------
  free energy    TOTEN  =        -0.33207963 eV

  energy without entropy =       -0.33207963  energy(sigma->0) =       -0.33207963


--------------------------------------------------------------------------------------------------------




----------------------------------------- Iteration    1(  13)  ---------------------------------------


    POTLOK:  cpu time    0.17: real time    0.17
    SETDIJ:  cpu time    0.45: real time    0.45
     EDDAV:  cpu time    2.84: real time    2.84
 BZINTS: Fermi energy: -5.121785; 36.000000 electrons
         Band energy:-379.173618;  BLOECHL correction: -0.005553
       DOS:  cpu time    0.01: real time    0.01
    CHARGE:  cpu time    0.10: real time    0.10
    MIXING:  cpu time    0.01: real time    0.01
    --------------------------------------------
      LOOP:  cpu time    3.58: real time    3.66

 eigenvalue-minimisations  :  1178
 total energy-change (2. order) :-0.5265898E+01  (-0.1639168E+00)
 number of electron      36.0000301 magnetization      22.2459225
 augmentation part        1.8830347 magnetization      11.3325956

 Broyden mixing:
  rms(total) = 0.26387E+01    rms(broyden)= 0.26376E+01
  rms(prec ) = 0.30366E+01
  weight for this iteration     100.00

 eigenvalues of (default mixing * dielectric matrix)
  average eigenvalue GAMMA=   0.4795
  1.0714  1.0714  0.4490  0.4490  0.3527  0.1182  0.1624  0.1624

 Free energy of the ion-electron system (eV)
  ---------------------------------------------------
  alpha Z        PSCENC =        17.30938353
  Ewald energy   TEWEN  =      -969.27828165
  -1/2 Hartree   DENC   =      -889.62012931
  -exchange  EXHF       =         0.00000000
  -V(xc)+E(xc)   XCENC  =       154.09669613
  PAW double counting   =      1773.78781903    -1782.27347272
  entropy T*S    EENTRO =         0.00000000
  eigenvalues    EBANDS =      -379.17361788
  atomic energy  EATOM  =      2069.55362560
  ---------------------------------------------------
  free energy    TOTEN  =        -5.59797728 eV

  energy without entropy =       -5.59797728  energy(sigma->0) =       -5.59797728


--------------------------------------------------------------------------------------------------------




----------------------------------------- Iteration    1(  14)  ---------------------------------------


    POTLOK:  cpu time    0.18: real time    0.18
    SETDIJ:  cpu time    0.45: real time    0.45
     EDDAV:  cpu time    2.77: real time    2.77
 BZINTS: Fermi energy: -5.150164; 36.000000 electrons
         Band energy:-377.860271;  BLOECHL correction: -0.005153
       DOS:  cpu time    0.01: real time    0.01
    CHARGE:  cpu time    0.10: real time    0.10
    MIXING:  cpu time    0.01: real time    0.01
    --------------------------------------------
      LOOP:  cpu time    3.50: real time    3.57

 eigenvalue-minimisations  :  1136
 total energy-change (2. order) : 0.8931602E+00  (-0.1710598E-01)
 number of electron      36.0000294 magnetization      20.9718255
 augmentation part        1.8561531 magnetization       9.6576061

 Broyden mixing:
  rms(total) = 0.24589E+01    rms(broyden)= 0.24589E+01
  rms(prec ) = 0.28309E+01
  weight for this iteration     100.00

 eigenvalues of (default mixing * dielectric matrix)
  average eigenvalue GAMMA=   0.6510
  1.3458  1.3458  0.6769  0.6769  0.4927  0.4927  0.3584  0.3584  0.1116

 Free energy of the ion-electron system (eV)
  ---------------------------------------------------
  alpha Z        PSCENC =        17.30938353
  Ewald energy   TEWEN  =      -969.27828165
  -1/2 Hartree   DENC   =      -889.95856500
  -exchange  EXHF       =         0.00000000
  -V(xc)+E(xc)   XCENC  =       154.10037335
  PAW double counting   =      1748.71932591    -1757.29040754
  entropy T*S    EENTRO =         0.00000000
  eigenvalues    EBANDS =      -377.86027125
  atomic energy  EATOM  =      2069.55362560
  ---------------------------------------------------
  free energy    TOTEN  =        -4.70481704 eV

  energy without entropy =       -4.70481704  energy(sigma->0) =       -4.70481704


--------------------------------------------------------------------------------------------------------




----------------------------------------- Iteration    1(  15)  ---------------------------------------


    POTLOK:  cpu time    0.18: real time    0.18
    SETDIJ:  cpu time    0.45: real time    0.45
     EDDAV:  cpu time    2.75: real time    2.76
 BZINTS: Fermi energy: -5.425996; 36.000000 electrons
         Band energy:-383.884751;  BLOECHL correction:  0.000000
       DOS:  cpu time    0.00: real time    0.00
    CHARGE:  cpu time    0.10: real time    0.10
    MIXING:  cpu time    0.01: real time    0.01
    --------------------------------------------
      LOOP:  cpu time    3.48: real time    3.56

 eigenvalue-minimisations  :  1132
 total energy-change (2. order) :-0.8509743E+01  (-0.4831812E+00)
 number of electron      36.0000307 magnetization      19.6020504
 augmentation part        1.9203460 magnetization       9.1667754

 Broyden mixing:
  rms(total) = 0.26122E+01    rms(broyden)= 0.26115E+01
  rms(prec ) = 0.30184E+01
  weight for this iteration     100.00

 eigenvalues of (default mixing * dielectric matrix)
  average eigenvalue GAMMA=   0.7194
  1.4971  1.4971  0.9121  0.9121  0.5396  0.5396  0.4643  0.3599  0.3599  0.1117

 Free energy of the ion-electron system (eV)
  ---------------------------------------------------
  alpha Z        PSCENC =        17.30938353
  Ewald energy   TEWEN  =      -969.27828165
  -1/2 Hartree   DENC   =      -885.55788904
  -exchange  EXHF       =         0.00000000
  -V(xc)+E(xc)   XCENC  =       147.45513415
  PAW double counting   =      1300.83968674    -1309.65146779
  entropy T*S    EENTRO =         0.00000000
  eigenvalues    EBANDS =      -383.88475119
  atomic energy  EATOM  =      2069.55362560
  ---------------------------------------------------
  free energy    TOTEN  =       -13.21455964 eV

  energy without entropy =      -13.21455964  energy(sigma->0) =      -13.21455964


--------------------------------------------------------------------------------------------------------




----------------------------------------- Iteration    1(  16)  ---------------------------------------


    POTLOK:  cpu time    0.18: real time    0.18
    SETDIJ:  cpu time    0.44: real time    0.45
     EDDAV:  cpu time    2.73: real time    2.73
 BZINTS: Fermi energy: -5.323126; 36.000000 electrons
         Band energy:-384.797470;  BLOECHL correction: -0.012000
       DOS:  cpu time    0.01: real time    0.01
    CHARGE:  cpu time    0.10: real time    0.10
    MIXING:  cpu time    0.01: real time    0.01
    --------------------------------------------
      LOOP:  cpu time    3.47: real time    3.54

 eigenvalue-minimisations  :  1116
 total energy-change (2. order) :-0.1692632E+01  (-0.1890965E+00)
 number of electron      36.0000195 magnetization      19.3632907
 augmentation part        1.4355723 magnetization       2.2883329

 Broyden mixing:
  rms(total) = 0.86931E+00    rms(broyden)= 0.86045E+00
  rms(prec ) = 0.10396E+01
  weight for this iteration     100.00

 eigenvalues of (default mixing * dielectric matrix)
  average eigenvalue GAMMA=   0.6676
  1.4905  1.4905  0.9068  0.9068  0.5541  0.5541  0.4815  0.3570  0.3570  0.1117
  0.1335

 Free energy of the ion-electron system (eV)
  ---------------------------------------------------
  alpha Z        PSCENC =        17.30938353
  Ewald energy   TEWEN  =      -969.27828165
  -1/2 Hartree   DENC   =      -883.20644577
  -exchange  EXHF       =         0.00000000
  -V(xc)+E(xc)   XCENC  =       144.78821645
  PAW double counting   =      1085.40634655    -1094.68256586
  entropy T*S    EENTRO =         0.00000000
  eigenvalues    EBANDS =      -384.79747003
  atomic energy  EATOM  =      2069.55362560
  ---------------------------------------------------
  free energy    TOTEN  =       -14.90719119 eV

  energy without entropy =      -14.90719119  energy(sigma->0) =      -14.90719119


--------------------------------------------------------------------------------------------------------




----------------------------------------- Iteration    1(  17)  ---------------------------------------


    POTLOK:  cpu time    0.18: real time    0.18
    SETDIJ:  cpu time    0.44: real time    0.44
     EDDAV:  cpu time    2.75: real time    2.78
 BZINTS: Fermi energy: -5.424161; 36.000000 electrons
         Band energy:-385.238448;  BLOECHL correction: -0.016071
       DOS:  cpu time    0.01: real time    0.01
    CHARGE:  cpu time    0.10: real time    0.10
    MIXING:  cpu time    0.01: real time    0.01
    --------------------------------------------
      LOOP:  cpu time    3.48: real time    3.61

 eigenvalue-minimisations  :  1096
 total energy-change (2. order) :-0.5044259E+00  (-0.1064502E-01)
 number of electron      36.0000219 magnetization      19.3072037
 augmentation part        1.5502792 magnetization       3.6647098

 Broyden mixing:
  rms(total) = 0.59448E+00    rms(broyden)= 0.59275E+00
  rms(prec ) = 0.61770E+00
  weight for this iteration     100.00

 eigenvalues of (default mixing * dielectric matrix)
  average eigenvalue GAMMA=   0.6259
  1.4937  1.4937  0.9156  0.9156  0.5501  0.5501  0.4977  0.3582  0.3582  0.1117
  0.1328  0.1328

 Free energy of the ion-electron system (eV)
  ---------------------------------------------------
  alpha Z        PSCENC =        17.30938353
  Ewald energy   TEWEN  =      -969.27828165
  -1/2 Hartree   DENC   =      -882.71036170
  -exchange  EXHF       =         0.00000000
  -V(xc)+E(xc)   XCENC  =       144.36687105
  PAW double counting   =      1034.67865419    -1044.09306044
  entropy T*S    EENTRO =         0.00000000
  eigenvalues    EBANDS =      -385.23844762
  atomic energy  EATOM  =      2069.55362560
  ---------------------------------------------------
  free energy    TOTEN  =       -15.41161704 eV

  energy without entropy =      -15.41161704  energy(sigma->0) =      -15.41161704


--------------------------------------------------------------------------------------------------------




----------------------------------------- Iteration    1(  18)  ---------------------------------------


    POTLOK:  cpu time    0.17: real time    0.17
    SETDIJ:  cpu time    0.45: real time    0.45
     EDDAV:  cpu time    2.47: real time    2.48
 BZINTS: Fermi energy: -5.403874; 36.000000 electrons
         Band energy:-385.090134;  BLOECHL correction: -0.015545
       DOS:  cpu time    0.01: real time    0.01
    CHARGE:  cpu time    0.10: real time    0.10
    MIXING:  cpu time    0.01: real time    0.01
    --------------------------------------------
      LOOP:  cpu time    3.21: real time    3.29

 eigenvalue-minimisations  :   976
 total energy-change (2. order) :-0.5564040E-01  (-0.1150897E-02)
 number of electron      36.0000209 magnetization      18.8768030
 augmentation part        1.5056121 magnetization       2.6816077

 Broyden mixing:
  rms(total) = 0.57787E+00    rms(broyden)= 0.57760E+00
  rms(prec ) = 0.65191E+00
  weight for this iteration     100.00

 eigenvalues of (default mixing * dielectric matrix)
  average eigenvalue GAMMA=   0.7020
  2.0609  1.1332  0.9584  0.9584  0.7473  0.7473  0.5805  0.5107  0.3595  0.3595
  0.4023  0.1117  0.1964

 Free energy of the ion-electron system (eV)
  ---------------------------------------------------
  alpha Z        PSCENC =        17.30938353
  Ewald energy   TEWEN  =      -969.27828165
  -1/2 Hartree   DENC   =      -882.81577358
  -exchange  EXHF       =         0.00000000
  -V(xc)+E(xc)   XCENC  =       144.28518876
  PAW double counting   =      1032.05898272    -1041.49024931
  entropy T*S    EENTRO =         0.00000000
  eigenvalues    EBANDS =      -385.09013352
  atomic energy  EATOM  =      2069.55362560
  ---------------------------------------------------
  free energy    TOTEN  =       -15.46725745 eV

  energy without entropy =      -15.46725745  energy(sigma->0) =      -15.46725745


--------------------------------------------------------------------------------------------------------




----------------------------------------- Iteration    1(  19)  ---------------------------------------


    POTLOK:  cpu time    0.18: real time    0.18
    SETDIJ:  cpu time    0.44: real time    0.44
     EDDAV:  cpu time    2.94: real time    2.94
 BZINTS: Fermi energy: -5.449735; 36.000000 electrons
         Band energy:-383.465199;  BLOECHL correction: -0.014889
       DOS:  cpu time    0.01: real time    0.01
    CHARGE:  cpu time    0.10: real time    0.10
    MIXING:  cpu time    0.01: real time    0.01
    --------------------------------------------
      LOOP:  cpu time    3.68: real time    3.84

 eigenvalue-minimisations  :  1232
 total energy-change (2. order) :-0.5638876E+00  (-0.1465955E-01)
 number of electron      36.0000210 magnetization      18.4445069
 augmentation part        1.5073135 magnetization       2.4038605

 Broyden mixing:
  rms(total) = 0.46649E+00    rms(broyden)= 0.46648E+00
  rms(prec ) = 0.54289E+00
  weight for this iteration     100.00

 eigenvalues of (default mixing * dielectric matrix)
  average eigenvalue GAMMA=   0.7561
  2.6146  1.1953  1.1953  0.8434  0.8434  0.7813  0.7813  0.4914  0.4914  0.3570
  0.3570  0.1117  0.2938  0.2288

 Free energy of the ion-electron system (eV)
  ---------------------------------------------------
  alpha Z        PSCENC =        17.30938353
  Ewald energy   TEWEN  =      -969.27828165
  -1/2 Hartree   DENC   =      -884.29085689
  -exchange  EXHF       =         0.00000000
  -V(xc)+E(xc)   XCENC  =       143.76492124
  PAW double counting   =       998.51954621    -1008.14428377
  entropy T*S    EENTRO =         0.00000000
  eigenvalues    EBANDS =      -383.46519936
  atomic energy  EATOM  =      2069.55362560
  ---------------------------------------------------
  free energy    TOTEN  =       -16.03114508 eV

  energy without entropy =      -16.03114508  energy(sigma->0) =      -16.03114508


--------------------------------------------------------------------------------------------------------




----------------------------------------- Iteration    1(  20)  ---------------------------------------


    POTLOK:  cpu time    0.18: real time    0.18
    SETDIJ:  cpu time    0.44: real time    0.44
     EDDAV:  cpu time    2.84: real time    2.85
 BZINTS: Fermi energy: -5.507484; 36.000000 electrons
         Band energy:-382.905782;  BLOECHL correction: -0.001229
       DOS:  cpu time    0.01: real time    0.01
    CHARGE:  cpu time    0.10: real time    0.10
    MIXING:  cpu time    0.01: real time    0.01
    --------------------------------------------
      LOOP:  cpu time    3.58: real time    3.66

 eigenvalue-minimisations  :  1182
 total energy-change (2. order) :-0.9095041E+00  (-0.1634946E-01)
 number of electron      36.0000267 magnetization      18.3896369
 augmentation part        1.7273238 magnetization       6.2117871

 Broyden mixing:
  rms(total) = 0.15905E+01    rms(broyden)= 0.15843E+01
  rms(prec ) = 0.18457E+01
  weight for this iteration     100.00

 eigenvalues of (default mixing * dielectric matrix)
  average eigenvalue GAMMA=   0.7256
  2.5664  1.2476  1.2476  0.8652  0.8652  0.7867  0.7867  0.5200  0.5200  0.3592
  0.3592  0.1117  0.3151  0.2245  0.1084

 Free energy of the ion-electron system (eV)
  ---------------------------------------------------
  alpha Z        PSCENC =        17.30938353
  Ewald energy   TEWEN  =      -969.27828165
  -1/2 Hartree   DENC   =      -885.15756373
  -exchange  EXHF       =         0.00000000
  -V(xc)+E(xc)   XCENC  =       143.29111950
  PAW double counting   =       963.07128730     -972.82443793
  entropy T*S    EENTRO =         0.00000000
  eigenvalues    EBANDS =      -382.90578176
  atomic energy  EATOM  =      2069.55362560
  ---------------------------------------------------
  free energy    TOTEN  =       -16.94064915 eV

  energy without entropy =      -16.94064915  energy(sigma->0) =      -16.94064915


--------------------------------------------------------------------------------------------------------




----------------------------------------- Iteration    1(  21)  ---------------------------------------


    POTLOK:  cpu time    0.18: real time    0.18
    SETDIJ:  cpu time    0.45: real time    0.45
     EDDAV:  cpu time    2.76: real time    2.76
 BZINTS: Fermi energy: -5.484878; 36.000000 electrons
         Band energy:-382.291243;  BLOECHL correction: -0.001616
       DOS:  cpu time    0.01: real time    0.01
    CHARGE:  cpu time    0.10: real time    0.10
    MIXING:  cpu time    0.01: real time    0.01
    --------------------------------------------
      LOOP:  cpu time    3.50: real time    3.57

 eigenvalue-minimisations  :  1136
 total energy-change (2. order) : 0.2186693E+00  (-0.6197707E-02)
 number of electron      36.0000264 magnetization      18.3834540
 augmentation part        1.7102575 magnetization       6.1916572

 Broyden mixing:
  rms(total) = 0.15663E+01    rms(broyden)= 0.15661E+01
  rms(prec ) = 0.18499E+01
  weight for this iteration     100.00

 eigenvalues of (default mixing * dielectric matrix)
  average eigenvalue GAMMA=   0.6809
  2.5239  1.2443  1.2443  0.8608  0.8608  0.7904  0.7904  0.5190  0.5190  0.3592
  0.3592  0.1117  0.3154  0.2241  0.0861  0.0861

 Free energy of the ion-electron system (eV)
  ---------------------------------------------------
  alpha Z        PSCENC =        17.30938353
  Ewald energy   TEWEN  =      -969.27828165
  -1/2 Hartree   DENC   =      -885.63976306
  -exchange  EXHF       =         0.00000000
  -V(xc)+E(xc)   XCENC  =       143.41020315
  PAW double counting   =       960.18294465     -969.96884953
  entropy T*S    EENTRO =         0.00000000
  eigenvalues    EBANDS =      -382.29124253
  atomic energy  EATOM  =      2069.55362560
  ---------------------------------------------------
  free energy    TOTEN  =       -16.72197984 eV

  energy without entropy =      -16.72197984  energy(sigma->0) =      -16.72197984


--------------------------------------------------------------------------------------------------------




----------------------------------------- Iteration    1(  22)  ---------------------------------------


    POTLOK:  cpu time    0.17: real time    0.18
    SETDIJ:  cpu time    0.44: real time    0.45
     EDDAV:  cpu time    2.35: real time    2.36
 BZINTS: Fermi energy: -5.481795; 36.000000 electrons
         Band energy:-382.243893;  BLOECHL correction: -0.001554
       DOS:  cpu time    0.01: real time    0.01
    CHARGE:  cpu time    0.10: real time    0.10
    MIXING:  cpu time    0.01: real time    0.01
    --------------------------------------------
      LOOP:  cpu time    3.09: real time    3.18

 eigenvalue-minimisations  :   916
 total energy-change (2. order) : 0.5915827E-01  (-0.2691017E-03)
 number of electron      36.0000264 magnetization      18.3497996
 augmentation part        1.7083283 magnetization       6.1570172

 Broyden mixing:
  rms(total) = 0.15648E+01    rms(broyden)= 0.15648E+01
  rms(prec ) = 0.18512E+01
  weight for this iteration     100.00

 eigenvalues of (default mixing * dielectric matrix)
  average eigenvalue GAMMA=   0.6632
  2.5046  1.2208  1.2208  0.8636  0.8636  0.8334  0.7539  0.5190  0.5190  0.3597
  0.3597  0.3145  0.1117  0.2242  0.2488  0.1782  0.1782

 Free energy of the ion-electron system (eV)
  ---------------------------------------------------
  alpha Z        PSCENC =        17.30938353
  Ewald energy   TEWEN  =      -969.27828165
  -1/2 Hartree   DENC   =      -885.66247118
  -exchange  EXHF       =         0.00000000
  -V(xc)+E(xc)   XCENC  =       143.44812963
  PAW double counting   =       959.20684455     -968.99615879
  entropy T*S    EENTRO =         0.00000000
  eigenvalues    EBANDS =      -382.24389326
  atomic energy  EATOM  =      2069.55362560
  ---------------------------------------------------
  free energy    TOTEN  =       -16.66282157 eV

  energy without entropy =      -16.66282157  energy(sigma->0) =      -16.66282157


--------------------------------------------------------------------------------------------------------




----------------------------------------- Iteration    1(  23)  ---------------------------------------


    POTLOK:  cpu time    0.18: real time    0.18
    SETDIJ:  cpu time    0.45: real time    0.45
     EDDAV:  cpu time    1.99: real time    1.99
 BZINTS: Fermi energy: -5.483525; 36.000000 electrons
         Band energy:-382.000084;  BLOECHL correction: -0.001742
       DOS:  cpu time    0.01: real time    0.01
    CHARGE:  cpu time    0.10: real time    0.10
    MIXING:  cpu time    0.01: real time    0.01
    --------------------------------------------
      LOOP:  cpu time    2.73: real time    2.81

 eigenvalue-minimisations  :   708
 total energy-change (2. order) : 0.2253046E-01  (-0.1284185E-03)
 number of electron      36.0000263 magnetization      18.1793582
 augmentation part        1.7075277 magnetization       5.9868555

 Broyden mixing:
  rms(total) = 0.15536E+01    rms(broyden)= 0.15536E+01
  rms(prec ) = 0.18390E+01
  weight for this iteration     100.00

 eigenvalues of (default mixing * dielectric matrix)
  average eigenvalue GAMMA=   0.6871
  2.5675  1.2948  1.2948  0.8536  0.8536  0.7873  0.7873  0.4070  0.4070  0.5264
  0.5264  0.3432  0.3432  0.3614  0.3614  0.1117  0.3185  0.2233

 Free energy of the ion-electron system (eV)
  ---------------------------------------------------
  alpha Z        PSCENC =        17.30938353
  Ewald energy   TEWEN  =      -969.27828165
  -1/2 Hartree   DENC   =      -885.86947653
  -exchange  EXHF       =         0.00000000
  -V(xc)+E(xc)   XCENC  =       143.44490502
  PAW double counting   =       957.43991580     -967.24027938
  entropy T*S    EENTRO =         0.00000000
  eigenvalues    EBANDS =      -382.00008350
  atomic energy  EATOM  =      2069.55362560
  ---------------------------------------------------
  free energy    TOTEN  =       -16.64029111 eV

  energy without entropy =      -16.64029111  energy(sigma->0) =      -16.64029111


--------------------------------------------------------------------------------------------------------




----------------------------------------- Iteration    1(  24)  ---------------------------------------


    POTLOK:  cpu time    0.18: real time    0.18
    SETDIJ:  cpu time    0.45: real time    0.45
     EDDAV:  cpu time    2.43: real time    2.43
 BZINTS: Fermi energy: -5.484569; 36.000000 electrons
         Band energy:-380.844096;  BLOECHL correction: -0.008400
       DOS:  cpu time    0.01: real time    0.01
    CHARGE:  cpu time    0.10: real time    0.10
    MIXING:  cpu time    0.01: real time    0.01
    --------------------------------------------
      LOOP:  cpu time    3.18: real time    3.26

 eigenvalue-minimisations  :   960
 total energy-change (2. order) : 0.3787254E-01  (-0.3714354E-02)
 number of electron      36.0000259 magnetization      17.9554132
 augmentation part        1.7008462 magnetization       5.4790605

 Broyden mixing:
  rms(total) = 0.13677E+01    rms(broyden)= 0.13675E+01
  rms(prec ) = 0.16030E+01
  weight for this iteration     100.00

 eigenvalues of (default mixing * dielectric matrix)
  average eigenvalue GAMMA=   0.7550
  2.6673  1.6279  1.6279  0.8446  0.8446  0.4929  0.4929  0.8030  0.8030  0.5696
  0.5696  0.5505  0.5505  0.5172  0.1117  0.3639  0.3639  0.3205  0.2232

 Free energy of the ion-electron system (eV)
  ---------------------------------------------------
  alpha Z        PSCENC =        17.30938353
  Ewald energy   TEWEN  =      -969.27828165
  -1/2 Hartree   DENC   =      -886.86503661
  -exchange  EXHF       =         0.00000000
  -V(xc)+E(xc)   XCENC  =       143.37197117
  PAW double counting   =       960.88423636     -970.73422049
  entropy T*S    EENTRO =         0.00000000
  eigenvalues    EBANDS =      -380.84409648
  atomic energy  EATOM  =      2069.55362560
  ---------------------------------------------------
  free energy    TOTEN  =       -16.60241858 eV

  energy without entropy =      -16.60241858  energy(sigma->0) =      -16.60241858


--------------------------------------------------------------------------------------------------------




----------------------------------------- Iteration    1(  25)  ---------------------------------------


    POTLOK:  cpu time    0.18: real time    0.18
    SETDIJ:  cpu time    0.45: real time    0.45
     EDDAV:  cpu time    2.56: real time    2.56
 BZINTS: Fermi energy: -5.473958; 36.000000 electrons
         Band energy:-379.716010;  BLOECHL correction: -0.008148
       DOS:  cpu time    0.01: real time    0.01
    CHARGE:  cpu time    0.10: real time    0.10
    MIXING:  cpu time    0.01: real time    0.01
    --------------------------------------------
      LOOP:  cpu time    3.30: real time    3.48

 eigenvalue-minimisations  :  1024
 total energy-change (2. order) :-0.1097232E+00  (-0.3544671E-02)
 number of electron      36.0000251 magnetization      17.6692000
 augmentation part        1.6707282 magnetization       4.7645423

 Broyden mixing:
  rms(total) = 0.11191E+01    rms(broyden)= 0.11189E+01
  rms(prec ) = 0.13198E+01
  weight for this iteration     100.00

 eigenvalues of (default mixing * dielectric matrix)
  average eigenvalue GAMMA=   0.8034
  2.7350  2.5126  1.3438  0.7834  0.7834  0.8536  0.8536  0.4789  0.4789  0.8358
  0.8358  0.5913  0.5913  0.5035  0.5035  0.1117  0.3640  0.3640  0.3211  0.2232

 Free energy of the ion-electron system (eV)
  ---------------------------------------------------
  alpha Z        PSCENC =        17.30938353
  Ewald energy   TEWEN  =      -969.27828165
  -1/2 Hartree   DENC   =      -887.93684630
  -exchange  EXHF       =         0.00000000
  -V(xc)+E(xc)   XCENC  =       143.26606407
  PAW double counting   =       977.10293201     -987.01300926
  entropy T*S    EENTRO =         0.00000000
  eigenvalues    EBANDS =      -379.71600977
  atomic energy  EATOM  =      2069.55362560
  ---------------------------------------------------
  free energy    TOTEN  =       -16.71214178 eV

  energy without entropy =      -16.71214178  energy(sigma->0) =      -16.71214178


--------------------------------------------------------------------------------------------------------




----------------------------------------- Iteration    1(  26)  ---------------------------------------


    POTLOK:  cpu time    0.18: real time    0.18
    SETDIJ:  cpu time    0.44: real time    0.44
     EDDAV:  cpu time    2.63: real time    2.67
 BZINTS: Fermi energy: -5.444933; 36.000000 electrons
         Band energy:-378.605065;  BLOECHL correction: -0.015666
       DOS:  cpu time    0.01: real time    0.01
    CHARGE:  cpu time    0.10: real time    0.10
    MIXING:  cpu time    0.01: real time    0.01
    --------------------------------------------
      LOOP:  cpu time    3.37: real time    3.49

 eigenvalue-minimisations  :  1040
 total energy-change (2. order) :-0.6503848E-01  (-0.9170618E-02)
 number of electron      36.0000220 magnetization      17.6501353
 augmentation part        1.5482718 magnetization       2.5334432

 Broyden mixing:
  rms(total) = 0.21401E+00    rms(broyden)= 0.19699E+00
  rms(prec ) = 0.21021E+00
  weight for this iteration     100.00

 eigenvalues of (default mixing * dielectric matrix)
  average eigenvalue GAMMA=   0.8582
  3.1762  3.1762  1.1362  1.1362  0.9971  0.9971  0.8111  0.8111  0.4794  0.4794
  0.6636  0.6636  0.4978  0.4978  0.5583  0.5583  0.1117  0.3639  0.3639  0.3207
  0.2232

 Free energy of the ion-electron system (eV)
  ---------------------------------------------------
  alpha Z        PSCENC =        17.30938353
  Ewald energy   TEWEN  =      -969.27828165
  -1/2 Hartree   DENC   =      -888.97267570
  -exchange  EXHF       =         0.00000000
  -V(xc)+E(xc)   XCENC  =       143.16389942
  PAW double counting   =       999.93621679    -1009.88428341
  entropy T*S    EENTRO =         0.00000000
  eigenvalues    EBANDS =      -378.60506484
  atomic energy  EATOM  =      2069.55362560
  ---------------------------------------------------
  free energy    TOTEN  =       -16.77718026 eV

  energy without entropy =      -16.77718026  energy(sigma->0) =      -16.77718026


--------------------------------------------------------------------------------------------------------




----------------------------------------- Iteration    1(  27)  ---------------------------------------


    POTLOK:  cpu time    0.18: real time    0.18
    SETDIJ:  cpu time    0.45: real time    0.45
     EDDAV:  cpu time    2.69: real time    2.69
 BZINTS: Fermi energy: -5.432710; 36.000000 electrons
         Band energy:-378.397695;  BLOECHL correction: -0.017512
       DOS:  cpu time    0.01: real time    0.01
    CHARGE:  cpu time    0.10: real time    0.10
    MIXING:  cpu time    0.01: real time    0.01
    --------------------------------------------
      LOOP:  cpu time    3.44: real time    3.51

 eigenvalue-minimisations  :  1098
 total energy-change (2. order) :-0.2018599E+00  (-0.3719164E-02)
 number of electron      36.0000204 magnetization      17.6766866
 augmentation part        1.4741004 magnetization       1.6955757

 Broyden mixing:
  rms(total) = 0.47936E+00    rms(broyden)= 0.47694E+00
  rms(prec ) = 0.57289E+00
  weight for this iteration     100.00

 eigenvalues of (default mixing * dielectric matrix)
  average eigenvalue GAMMA=   0.8261
  3.1241  3.1241  1.0700  1.0700  0.9834  0.9834  0.8300  0.8300  0.4795  0.4795
  0.6769  0.6769  0.5100  0.5100  0.5916  0.5257  0.1117  0.3637  0.3637  0.2232
  0.3206  0.3258

 Free energy of the ion-electron system (eV)
  ---------------------------------------------------
  alpha Z        PSCENC =        17.30938353
  Ewald energy   TEWEN  =      -969.27828165
  -1/2 Hartree   DENC   =      -889.28984567
  -exchange  EXHF       =         0.00000000
  -V(xc)+E(xc)   XCENC  =       143.06921673
  PAW double counting   =      1007.84208839    -1017.78753161
  entropy T*S    EENTRO =         0.00000000
  eigenvalues    EBANDS =      -378.39769544
  atomic energy  EATOM  =      2069.55362560
  ---------------------------------------------------
  free energy    TOTEN  =       -16.97904012 eV

  energy without entropy =      -16.97904012  energy(sigma->0) =      -16.97904012


--------------------------------------------------------------------------------------------------------




----------------------------------------- Iteration    1(  28)  ---------------------------------------


    POTLOK:  cpu time    0.18: real time    0.18
    SETDIJ:  cpu time    0.44: real time    0.44
     EDDAV:  cpu time    2.32: real time    2.32
 BZINTS: Fermi energy: -5.472471; 36.000000 electrons
         Band energy:-378.857666;  BLOECHL correction: -0.018286
       DOS:  cpu time    0.01: real time    0.01
    CHARGE:  cpu time    0.10: real time    0.10
    MIXING:  cpu time    0.01: real time    0.01
    --------------------------------------------
      LOOP:  cpu time    3.06: real time    3.14

 eigenvalue-minimisations  :   890
 total energy-change (2. order) :-0.2281953E-01  (-0.1043841E-02)
 number of electron      36.0000212 magnetization      17.6708969
 augmentation part        1.5105470 magnetization       2.2336587

 Broyden mixing:
  rms(total) = 0.28629E+00    rms(broyden)= 0.28612E+00
  rms(prec ) = 0.35367E+00
  weight for this iteration     100.00

 eigenvalues of (default mixing * dielectric matrix)
  average eigenvalue GAMMA=   0.8714
  3.8676  3.1368  1.2705  1.2705  0.8301  0.8301  0.9684  0.9684  0.4794  0.4794
  0.5584  0.5584  0.6648  0.6648  0.4956  0.4956  0.5597  0.5597  0.1117  0.3639
  0.3639  0.3207  0.2232

 Free energy of the ion-electron system (eV)
  ---------------------------------------------------
  alpha Z        PSCENC =        17.30938353
  Ewald energy   TEWEN  =      -969.27828165
  -1/2 Hartree   DENC   =      -888.83571525
  -exchange  EXHF       =         0.00000000
  -V(xc)+E(xc)   XCENC  =       143.04467939
  PAW double counting   =      1005.62963586    -1015.56752111
  entropy T*S    EENTRO =         0.00000000
  eigenvalues    EBANDS =      -378.85766601
  atomic energy  EATOM  =      2069.55362560
  ---------------------------------------------------
  free energy    TOTEN  =       -17.00185964 eV

  energy without entropy =      -17.00185964  energy(sigma->0) =      -17.00185964


[...]
     15      -2.4873      0.00000
     16      -2.3430      0.00000
     17      -2.0728      0.00000
     18      -2.0728      0.00000
     19      -1.8986      0.00000
     20      -1.3264      0.00000
     21      -1.2088      0.00000
     22      -1.2088      0.00000
     23      -0.9682      0.00000
     24      -0.8649      0.00000
     25      -0.8649      0.00000
     26      -0.5750      0.00000
     27      -0.1228      0.00000
     28      -0.1228      0.00000
     29       2.3544      0.00000
     30       3.3826      0.00000
     31       4.1605      0.00000
     32       6.0887      0.00000
     33       6.4120      0.00000
     34       6.4528      0.00000
     35       8.1963      0.00000
     36       8.6325      0.00000
     37       8.9898      0.00000
     38       9.2043      0.00000
     39       9.9500      0.00000
     40       9.9500      0.00000
     41      10.3423      0.00000
     42      11.7711      0.00000

 k-point   2 :       0.3333    0.0000    0.0000
  band No.  band energies     occupation 
      1     -19.3681      1.00000
      2     -19.3402      1.00000
      3     -13.2086      1.00000
      4     -12.5983      1.00000
      5     -12.4626      1.00000
      6     -12.1910      1.00000
      7     -10.5973      1.00000
      8      -5.5057      1.00000
      9      -5.2047      1.00000
     10      -4.4331     -0.07885
     11      -4.4025      0.00000
     12      -4.2362      0.00000
     13      -4.1741      0.00000
     14      -2.5914      0.00000
     15      -2.4738      0.00000
     16      -2.3758      0.00000
     17      -2.1379      0.00000
     18      -2.0933      0.00000
     19      -1.8170      0.00000
     20      -1.6493      0.00000
     21      -1.6086      0.00000
     22      -1.1703      0.00000
     23      -1.1311      0.00000
     24      -1.0781      0.00000
     25      -0.6524      0.00000
     26      -0.3681      0.00000
     27      -0.3186      0.00000
     28      -0.3164      0.00000
     29       3.5358      0.00000
     30       4.0954      0.00000
     31       5.2034      0.00000
     32       5.8308      0.00000
     33       6.0132      0.00000
     34       6.8861      0.00000
     35       7.1984      0.00000
     36       7.3860      0.00000
     37       8.7860      0.00000
     38       9.2015      0.00000
     39       9.7765      0.00000
     40       9.8759      0.00000
     41       9.9984      0.00000
     42      10.1875      0.00000

 k-point   3 :       0.3333    0.3333    0.0000
  band No.  band energies     occupation 
      1     -19.3607      1.00000
      2     -19.3336      1.00000
      3     -12.9734      1.00000
      4     -12.5671      1.00000
      5     -12.4867      1.00000
      6     -12.3617      1.00000
      7     -10.5304      1.00000
      8      -5.4796      1.00000
      9      -5.1873      1.00000
     10      -4.5256      0.45631
     11      -4.4473      0.00000
     12      -4.3801      0.00000
     13      -4.3390      0.00000
     14      -3.0600      0.00000
     15      -2.4673      0.00000
     16      -2.4187      0.00000
     17      -2.4133      0.00000
     18      -2.3530      0.00000
     19      -2.2395      0.00000
     20      -1.6422      0.00000
     21      -1.5681      0.00000
     22      -1.3889      0.00000
     23      -1.2210      0.00000
     24      -0.4423      0.00000
     25      -0.3905      0.00000
     26      -0.3377      0.00000
     27      -0.2723      0.00000
     28      -0.0520      0.00000
     29       4.3462      0.00000
     30       4.7231      0.00000
     31       5.7575      0.00000
     32       6.4367      0.00000
     33       6.4805      0.00000
     34       6.5829      0.00000
     35       7.0248      0.00000
     36       7.4882      0.00000
     37       7.8697      0.00000
     38       7.9290      0.00000
     39       8.0995      0.00000
     40       8.7471      0.00000
     41       9.2592      0.00000
     42       9.7907      0.00000

 k-point   4 :       0.0000    0.0000    0.3333
  band No.  band energies     occupation 
      1     -19.3764      1.00000
      2     -19.3471      1.00000
      3     -13.4865      1.00000
      4     -12.6317      1.00000
      5     -12.2446      1.00000
      6     -12.1150      1.00000
      7     -10.6525      1.00000
      8      -5.4601      1.00000
      9      -5.2214      1.00000
     10      -4.2907     -0.02998
     11      -4.2907      0.00000
     12      -4.1922      0.00000
     13      -4.1922      0.00000
     14      -2.4867      0.00000
     15      -2.4867      0.00000
     16      -2.3456      0.00000
     17      -2.0734      0.00000
     18      -2.0734      0.00000
     19      -1.9157      0.00000
     20      -1.2782      0.00000
     21      -1.2085      0.00000
     22      -1.2085      0.00000
     23      -0.9682      0.00000
     24      -0.8650      0.00000
     25      -0.8650      0.00000
     26      -0.6123      0.00000
     27      -0.1227      0.00000
     28      -0.1227      0.00000
     29       2.4653      0.00000
     30       3.1147      0.00000
     31       4.5033      0.00000
     32       5.5446      0.00000
     33       6.4597      0.00000
     34       6.9285      0.00000
     35       8.0819      0.00000
     36       8.3605      0.00000
     37       9.2183      0.00000
     38       9.2794      0.00000
     39       9.9632      0.00000
     40       9.9632      0.00000
     41      10.2064      0.00000
     42      10.2064      0.00000

 k-point   5 :       0.3333    0.0000    0.3333
  band No.  band energies     occupation 
      1     -19.3682      1.00000
      2     -19.3404      1.00000
      3     -13.2086      1.00000
      4     -12.5987      1.00000
      5     -12.4626      1.00000
      6     -12.1909      1.00000
      7     -10.5973      1.00000
      8      -5.5051      1.00000
      9      -5.2059      1.00000
     10      -4.4324     -0.07914
     11      -4.4035      0.00000
     12      -4.2361      0.00000
     13      -4.1744      0.00000
     14      -2.5721      0.00000
     15      -2.4727      0.00000
     16      -2.3996      0.00000
     17      -2.1366      0.00000
     18      -2.0947      0.00000
     19      -1.8097      0.00000
     20      -1.6636      0.00000
     21      -1.5969      0.00000
     22      -1.1706      0.00000
     23      -1.1307      0.00000
     24      -1.0781      0.00000
     25      -0.6579      0.00000
     26      -0.3680      0.00000
     27      -0.3188      0.00000
     28      -0.3123      0.00000
     29       3.5744      0.00000
     30       4.0096      0.00000
     31       5.3157      0.00000
     32       5.8847      0.00000
     33       5.9541      0.00000
     34       6.5744      0.00000
     35       7.4981      0.00000
     36       7.5304      0.00000
     37       8.4030      0.00000
     38       9.4082      0.00000
     39       9.7418      0.00000
     40       9.8120      0.00000
     41       9.8748      0.00000
     42      10.2291      0.00000

 k-point   6 :       0.3333    0.3333    0.3333
  band No.  band energies     occupation 
      1     -19.3606      1.00000
      2     -19.3335      1.00000
      3     -12.9733      1.00000
      4     -12.5674      1.00000
      5     -12.4867      1.00000
      6     -12.3614      1.00000
      7     -10.5304      1.00000
      8      -5.4721      1.00000
      9      -5.1974      1.00000
     10      -4.5261      0.46004
     11      -4.4472      0.00000
     12      -4.3796      0.00000
     13      -4.3382      0.00000
     14      -3.0509      0.00000
     15      -2.4756      0.00000
     16      -2.4366      0.00000
     17      -2.3901      0.00000
     18      -2.3611      0.00000
     19      -2.2303      0.00000
     20      -1.6411      0.00000
     21      -1.5691      0.00000
     22      -1.3889      0.00000
     23      -1.2331      0.00000
     24      -0.4423      0.00000
     25      -0.3808      0.00000
     26      -0.3377      0.00000
     27      -0.2738      0.00000
     28      -0.0520      0.00000
     29       4.3348      0.00000
     30       4.7355      0.00000
     31       5.7225      0.00000
     32       6.4888      0.00000
     33       6.5552      0.00000
     34       6.5698      0.00000
     35       7.0714      0.00000
     36       7.3991      0.00000
     37       7.7672      0.00000
     38       7.9179      0.00000
     39       8.0439      0.00000
     40       8.8641      0.00000
     41       9.0600      0.00000
     42      10.0276      0.00000


--------------------------------------------------------------------------------------------------------


 soft charge-density along one line, spin component           1
         0         1         2         3         4         5         6         7         8         9
 total charge-density along one line
 
 soft charge-density along one line, spin component           2
         0         1         2         3         4         5         6         7         8         9
 total charge-density along one line
 
 pseudopotential strength for first ion, spin component:           1
 10.491   0.029   0.000   0.000   0.000   0.000   0.000   0.000
  0.029  -0.001   0.000   0.000   0.000   0.000   0.000   0.000
  0.000   0.000  -4.518   0.000   0.000  -0.027   0.000   0.000
  0.000   0.000   0.000  -4.545   0.000   0.000  -0.031   0.000
  0.000   0.000   0.000   0.000  -4.518   0.000   0.000  -0.027
  0.000   0.000  -0.027   0.000   0.000  -0.774   0.000   0.000
  0.000   0.000   0.000  -0.031   0.000   0.000  -0.775   0.000
  0.000   0.000   0.000   0.000  -0.027   0.000   0.000  -0.774
 pseudopotential strength for first ion, spin component:           2
 10.012   0.005   0.000   0.000   0.000   0.000   0.000   0.000
  0.005  -0.002   0.000   0.000   0.000   0.000   0.000   0.000
  0.000   0.000  -4.487   0.000   0.000   0.068   0.000   0.000
  0.000   0.000   0.000  -4.486   0.000   0.000   0.079   0.000
  0.000   0.000   0.000   0.000  -4.487   0.000   0.000   0.068
  0.000   0.000   0.068   0.000   0.000  -0.765   0.000   0.000
  0.000   0.000   0.000   0.079   0.000   0.000  -0.766   0.000
  0.000   0.000   0.000   0.000   0.068   0.000   0.000  -0.765
 total augmentation occupancy for first ion, spin component:           1
  2.015   0.104   0.000   0.000   0.000   0.000   0.000   0.000
  0.104   0.015   0.000   0.000   0.000   0.000   0.000   0.000
  0.000   0.000   0.560   0.000   0.000  -0.002   0.000   0.000
  0.000   0.000   0.000   1.055   0.000   0.000  -0.011   0.000
  0.000   0.000   0.000   0.000   0.560   0.000   0.000  -0.002
  0.000   0.000  -0.002   0.000   0.000   0.000   0.000   0.000
  0.000   0.000   0.000  -0.011   0.000   0.000   0.000   0.000
  0.000   0.000   0.000   0.000  -0.002   0.000   0.000   0.000
 total augmentation occupancy for first ion, spin component:           2
  0.053  -0.112   0.000   0.000   0.000   0.000   0.000   0.000
 -0.112  -0.010   0.000   0.000   0.000   0.000   0.000   0.000
  0.000   0.000   0.552   0.000   0.000  -0.002   0.000   0.000
  0.000   0.000   0.000   1.054   0.000   0.000  -0.011   0.000
  0.000   0.000   0.000   0.000   0.552   0.000   0.000  -0.002
  0.000   0.000  -0.002   0.000   0.000   0.000   0.000   0.000
  0.000   0.000   0.000  -0.011   0.000   0.000   0.000   0.000
  0.000   0.000   0.000   0.000  -0.002   0.000   0.000   0.000


------------------------ aborting loop because EDIFF is reached ----------------------------------------


 


 total charge     
 
# of ion     s       p       d       tot
----------------------------------------
  1        1.059   0.924   0.000   1.984
  2        1.629   2.934   0.000   4.563
  3        1.629   2.934   0.000   4.563
  4        1.367   1.910   0.000   3.277
  5        1.367   1.910   0.000   3.277
  6        1.366   1.916   0.000   3.282
  7        1.365   1.919   0.000   3.283
------------------------------------------------
tot        9.783  14.447   0.000  24.230
 


 magnetization (x)
 
# of ion     s       p       d       tot
----------------------------------------
  1        0.036   0.908   0.000   0.944
  2        0.019   1.502   0.000   1.521
  3        0.019   1.502   0.000   1.521
  4        0.045   1.882   0.000   1.927
  5        0.045   1.882   0.000   1.927
  6        0.048   1.913   0.000   1.961
  7        0.050   1.915   0.000   1.965
------------------------------------------------
tot        0.261  11.505   0.000  11.766
 
    CHARGE:  cpu time    0.10: real time    0.10
    FORLOC:  cpu time    0.01: real time    0.01
    FORNL :  cpu time    0.44: real time    0.45
    STRESS:  cpu time    0.55: real time    0.55
    FORHAR:  cpu time    0.03: real time    0.03
    MIXING:  cpu time    0.01: real time    0.01

  FORCE on cell =-STRESS in cart. coord.  units (eV):
  Direction    XX          YY          ZZ          XY          YZ          ZX
  --------------------------------------------------------------------------------------
  Alpha Z    22.02450    22.02450    22.02450
  Ewald    -351.73557  -351.73557  -354.01084     0.00000     0.00000     0.00000
  Hartree   274.97662   274.97662   274.18782     0.00000     0.00000     0.00000
  E(xc)    -153.73061  -153.73061  -153.08130     0.00000     0.00000     0.00000
  Local    -393.82259  -393.82259  -445.73816     0.00000     0.00000     0.00000
  n-local   -58.79377   -57.21052   -74.23634     1.39246     0.04058     0.06643
  augment    12.31192    12.31192    19.37583     0.00000     0.00000     0.00000
  Kinetic   651.52976   645.35228   712.33599    -5.40353    -0.15346    -0.25650
  Fock        0.00000     0.00000     0.00000     0.00000     0.00000     0.00000
  -------------------------------------------------------------------------------------
  Total       0.46315     0.46315     0.85749     0.00000     0.00000     0.00000
  in kB       2.97139     2.97139     5.50138     0.00000     0.00000     0.00000
  external pressure =        3.81 kB  Pullay stress =        0.00 kB


 VOLUME and BASIS-vectors are now :
 -----------------------------------------------------------------------------
  energy-cutoff  :      400.00
  volume of cell :      249.73
      direct lattice vectors                 reciprocal lattice vectors
     4.339342523  0.000000000  0.000000000     0.230449658  0.000000000  0.000000000
     0.000000000  4.339342523  0.000000000     0.000000000  0.230449658  0.000000000
     0.000000000  0.000000000 13.262383183     0.000000000  0.000000000  0.075401230

  length of vectors
     4.339342523  4.339342523 13.262383183     0.230449658  0.230449658  0.075401230


 FORCES acting on ions
    electron-ion (+dipol)            ewald-force                    non-local-force                 convergence-correction
 -----------------------------------------------------------------------------------------------
   -.459E-15 -.410E-15 -.130E-14   0.852E-15 0.828E-15 0.183E-13   0.241E-28 0.275E-28 0.000E+00   -.592E-14 -.196E-13 0.573E-13
   0.180E-12 -.747E-12 -.297E+02   -.861E-15 -.669E-15 0.292E+02   -.200E-18 -.933E-19 0.676E+00   -.809E-13 -.245E-12 -.754E-01
   0.182E-12 -.114E-11 0.297E+02   -.153E-14 -.106E-14 -.292E+02   0.200E-18 0.107E-18 -.676E+00   -.317E-13 0.208E-12 0.754E-01
   0.683E-13 -.642E-12 0.669E+02   -.138E-14 0.147E-14 -.659E+02   0.209E-18 0.157E-18 -.121E+01   -.822E-14 -.217E-12 -.108E+00
   0.699E-13 -.655E-12 -.669E+02   -.429E-15 0.485E-15 0.659E+02   -.209E-18 -.211E-18 0.121E+01   -.389E-13 0.128E-12 0.108E+00
   0.752E-13 0.739E-15 -.166E-12   0.303E-14 -.210E-14 -.711E-14   0.715E-27 0.818E-27 0.000E+00   -.264E-13 0.566E-13 -.547E-13
   0.472E-15 0.790E-13 0.234E-12   -.331E-14 -.272E-15 -.213E-13   0.288E-26 0.329E-26 0.000E+00   -.189E-13 -.443E-13 -.108E-12
 -----------------------------------------------------------------------------------------------
   0.575E-12 -.310E-11 0.323E-12   -.362E-14 -.132E-14 0.148E-20   0.314E-26 -.407E-19 0.000E+00   -.211E-12 -.133E-12 0.402E-12
 
 
 POSITION                                       TOTAL-FORCE (eV/Angst)
 -----------------------------------------------------------------------------------
      0.00000      0.00000      0.00000         0.000000      0.000000      0.000000
      2.16967      2.16967     11.43510         0.000000      0.000000      0.062491
      2.16967      2.16967      1.82729         0.000000      0.000000     -0.062491
      2.16967      2.16967      4.55159         0.000000      0.000000     -0.355225
      2.16967      2.16967      8.71079         0.000000      0.000000      0.355225
      2.16967      0.00000      6.63119         0.000000      0.000000      0.000000
      0.00000      2.16967      6.63119         0.000000      0.000000      0.000000
 -----------------------------------------------------------------------------------
    total drift:                                0.000000      0.000000      0.000000


--------------------------------------------------------------------------------------------------------



  FREE ENERGIE OF THE ION-ELECTRON SYSTEM (eV)
  ---------------------------------------------------
  free  energy   TOTEN  =       -17.647305 eV

  energy  without entropy=      -17.647305  energy(sigma->0) =      -17.647305
 
 d Force = 0.3246071E-03[ 0.491E-03, 0.158E-03]  d Energy =-0.3026786E-01 0.306E-01
 d Force = 0.1670916E+00[ 0.167E+00, 0.168E+00]  d Ewald  = 0.2599119E+01-0.243E+01


--------------------------------------------------------------------------------------------------------


    POTLOK:  cpu time    0.62: real time    0.62


--------------------------------------------------------------------------------------------------------




--------------------------------------------------------------------------------------------------------


     LOOP+:  cpu time   18.21: real time   19.07
    4ORBIT:  cpu time    0.00: real time    0.00
 


 total charge     
 
# of ion     s       p       d       tot
----------------------------------------
  1        1.059   0.924   0.000   1.984
  2        1.629   2.934   0.000   4.563
  3        1.629   2.934   0.000   4.563
  4        1.367   1.910   0.000   3.277
  5        1.367   1.910   0.000   3.277
  6        1.366   1.916   0.000   3.282
  7        1.365   1.919   0.000   3.283
------------------------------------------------
tot        9.783  14.447   0.000  24.230
 


 magnetization (x)
 
# of ion     s       p       d       tot
----------------------------------------
  1        0.036   0.908   0.000   0.944
  2        0.019   1.502   0.000   1.521
  3        0.019   1.502   0.000   1.521
  4        0.045   1.882   0.000   1.927
  5        0.045   1.882   0.000   1.927
  6        0.048   1.913   0.000   1.961
  7        0.050   1.915   0.000   1.965
------------------------------------------------
tot        0.261  11.505   0.000  11.766
 
 BZINTS: Fermi energy: -4.515122; 36.000000 electrons
         Band energy:-360.166720;  BLOECHL correction: -0.024990

 total amount of memory used by VASP on root node    42326. kBytes
========================================================================

   base      :      30000. kBytes
   nonl-proj :        913. kBytes
   fftplans  :       1518. kBytes
   grid      :       3995. kBytes
   one-center:          6. kBytes
   wavefun   :       5894. kBytes
 
  
  
 General timing and accounting informations for this job:
 ========================================================
  
                  Total CPU time used (sec):      384.897
                            User time (sec):      382.018
                          System time (sec):        2.879
                         Elapsed time (sec):      400.042
  
                   Maximum memory used (kb):       68056.
                   Average memory used (kb):           0.
  
                          Minor page faults:         9592
                          Major page faults:            0
                 Voluntary context switches:         2378
